 Gaussian 03, Revision B.04,
 Gaussian 03:  x86-Linux-G03RevB.04 2-Jun-2003

 ---------------------------------------
 # UBPW91/cc-pVDZ opt guess=(mix,always)
 ---------------------------------------

 ------------------------------------------
 Simple diradical with benzene using UBPW91
 ------------------------------------------
 Symbolic Z-matrix:
 Charge =  0 Multiplicity = 3

 SCF Done:  E(UB-PW91) =  -384.489640276     A.U. after   21 cycles
 SCF Done:  E(UB-PW91) =  -384.495953197     A.U. after   21 cycles
 SCF Done:  E(UB-PW91) =  -384.496613707     A.U. after   21 cycles
 SCF Done:  E(UB-PW91) =  -384.496634620     A.U. after   18 cycles
 SCF Done:  E(UB-PW91) =  -384.496636433     A.U. after   18 cycles
 Optimization completed.
    -- Stationary point found.

                         Standard orientation:
 ---------------------------------------------------------------------
 Center     Atomic     Atomic              Coordinates (Angstroms)
 Number     Number      Type              X           Y           Z
 ---------------------------------------------------------------------
    1          6             0       -2.418963   -0.711741    0.000000
    2          6             0       -1.226697   -1.420431   -0.000002
    3          6             0        0.021036   -0.728771   -0.000001
    4          6             0        0.021039    0.728777    0.000001
    5          6             0       -1.226700    1.420432    0.000001
    6          6             0       -2.418963    0.711737    0.000001
    7          1             0       -3.375490   -1.251961    0.000001
    8          1             0       -1.220455   -2.518809   -0.000001
    9          6             0        1.294473   -1.336688    0.000001
   10          6             0        1.294474    1.336689   -0.000001
   11          1             0       -1.220467    2.518810    0.000002
   12          1             0       -3.375492    1.251954    0.000002
   13          6             0        2.518759    0.719726   -0.000002
   14          6             0        2.518759   -0.719730    0.000002
   15          1             0        3.464299    1.282144    0.000001
   16          1             0        3.464300   -1.282145    0.000003
 ---------------------------------------------------------------------

 The electronic state is 3-A.
 Alpha  occ. eigenvalues --   -9.94405  -9.94402  -9.94292  -9.94278  -9.93569
 Alpha  occ. eigenvalues --   -9.93551  -9.92824  -9.92823  -9.92728  -9.92707
 Alpha  occ. eigenvalues --   -0.80811  -0.75738  -0.70420  -0.68399  -0.65361
 Alpha  occ. eigenvalues --   -0.57464  -0.56259  -0.52167  -0.46659  -0.45533
 Alpha  occ. eigenvalues --   -0.43806  -0.39835  -0.39192  -0.38692  -0.36772
 Alpha  occ. eigenvalues --   -0.35982  -0.31834  -0.31523  -0.30234  -0.26625
 Alpha  occ. eigenvalues --   -0.23379  -0.23158  -0.20585  -0.19108
 Alpha virt. eigenvalues --   -0.07995  -0.05435  -0.00996   0.04200   0.04582
 Alpha virt. eigenvalues --    0.06844   0.08126   0.10591   0.11274   0.12027
 Alpha virt. eigenvalues --    0.13680   0.19187   0.19800   0.22747   0.23852

  Beta  occ. eigenvalues --   -9.94187  -9.94173  -9.93498  -9.93480  -9.93014
  Beta  occ. eigenvalues --   -9.93011  -9.92782  -9.92781  -9.92732  -9.92712
  Beta  occ. eigenvalues --   -0.79948  -0.75097  -0.69644  -0.68048  -0.63937
  Beta  occ. eigenvalues --   -0.56931  -0.55870  -0.51077  -0.46046  -0.45020
  Beta  occ. eigenvalues --   -0.41960  -0.39230  -0.39000  -0.38097  -0.36308
  Beta  occ. eigenvalues --   -0.35572  -0.31416  -0.31045  -0.29969  -0.25915
  Beta  occ. eigenvalues --   -0.23188  -0.19690
  Beta virt. eigenvalues --   -0.12809  -0.10553  -0.07201  -0.05520   0.00428
  Beta virt. eigenvalues --    0.04662   0.04744   0.07402   0.08328   0.11062
  Beta virt. eigenvalues --    0.11694   0.12248   0.14625   0.19919   0.20860

 Mulliken atomic charges:
              1
     1  C    0.023302
     2  C    0.031614
     3  C    0.055057
     4  C    0.055062
     5  C    0.031611
     6  C    0.023303
     7  H   -0.005984
     8  H   -0.020321
     9  C   -0.126076
    10  C   -0.126078
    11  H   -0.020321
    12  H   -0.005984
    13  C    0.026934
    14  C    0.026935
    15  H    0.015472
    16  H    0.015472
 Sum of Mulliken charges=   0.00000

 Dipole moment (field-independent basis, Debye):
    X=    -0.4006    Y=     0.0000    Z=     0.0000  Tot=     0.4006
 Quadrupole moment (field-independent basis, Debye-Ang):
   XX=   -47.0716   YY=   -54.3838   ZZ=   -61.2576
   XY=     0.0000   XZ=     0.0000   YZ=     0.0000

 Normal termination of Gaussian 03 at Tue Jun 15 11:29:26 2004.
